                         Program Version 5.0.3 -  RELEASE  -
|  1> ! PBE
|  2> ! def2-qzvp
|  3> *xyzfile  0  2  struc.xyz
|  4> %scf
|  5> MaxIter  500
|  6> end
|  7> ! StrongSCF
|  8> ! defgrid2
|  9> ! UKS
| 10> %pal
| 11> nprocs  20
| 12> end
| 13>
| 14>                          ****END OF INPUT****

CARTESIAN COORDINATES (ANGSTROEM)
---------------------------------
  C      0.000000    0.000000    0.000000
  H      0.538658    0.932983    0.000000
  H      0.538658   -0.932983    0.000000
  H     -1.077316    0.000000    0.000000

 Total Charge           Charge          ....    0
 Multiplicity           Mult            ....    2
 Number of Electrons    NEL             ....    9
 Basis Dimension        Dim             ....  147

ORBITAL ENERGIES
----------------
                 SPIN UP ORBITALS
  NO   OCC          E(Eh)            E(eV)
   0   1.0000      -9.898997      -269.3654
   1   1.0000      -0.621621       -16.9152
   2   1.0000      -0.377124       -10.2621
   3   1.0000      -0.377124       -10.2621
   4   1.0000      -0.199030        -5.4159
   5   0.0000       0.013853         0.3770
   6   0.0000       0.080143         2.1808
   7   0.0000       0.080150         2.1810
   8   0.0000       0.115290         3.1372
   9   0.0000       0.115309         3.1377

                 SPIN DOWN ORBITALS
  NO   OCC          E(Eh)            E(eV)
   0   1.0000      -9.885297      -268.9926
   1   1.0000      -0.587232       -15.9794
   2   1.0000      -0.367255        -9.9935
   3   1.0000      -0.367255        -9.9935
   4   0.0000      -0.107241        -2.9182
   5   0.0000       0.024193         0.6583
   6   0.0000       0.084891         2.3100
   7   0.0000       0.084896         2.3101
   8   0.0000       0.120869         3.2890

MULLIKEN ATOMIC CHARGES AND SPIN POPULATIONS
--------------------------------------------
   0 C :   -0.168893    1.130861
   1 H :    0.056303   -0.043612
   2 H :    0.056303   -0.043612
   3 H :    0.056287   -0.043637
Sum of atomic charges         :   -0.0000000

LOEWDIN ATOMIC CHARGES AND SPIN POPULATIONS
-------------------------------------------
   0 C :    0.410541    0.747488
   1 H :   -0.136847    0.084171
   2 H :   -0.136847    0.084171
   3 H :   -0.136848    0.084171

  Mayer bond orders larger than 0.100000
B(  0-C ,  1-H ) :   0.9811 B(  0-C ,  2-H ) :   0.9811 B(  0-C ,  3-H ) :   0.9811

FINAL SINGLE POINT ENERGY       -39.792173619213

DIPOLE MOMENT
-------------
                                X             Y             Z
Electronic contribution:     -0.00000       0.00000       0.00000
Nuclear contribution   :      0.00000       0.00000       0.00000
                        -----------------------------------------
Total Dipole Moment    :     -0.00000       0.00000       0.00000
                        -----------------------------------------
Magnitude (a.u.)       :      0.00000
Magnitude (Debye)      :      0.00000

Rotational constants in cm-1:     9.606356     9.606356     4.803178
Rotational constants in MHz : 287991.321772 287991.320692 143995.660616

                             ****ORCA TERMINATED NORMALLY****
TOTAL RUN TIME: 0 days 0 hours 0 minutes 10 seconds 691 msec
